
#(C) 2025 by FIZ Karlsruhe - Leibniz Institute for Information Infrastructure.  All rights reserved.
data_84578-ICSD
_database_code_ICSD 84578
_audit_creation_date 1999-01-19
_audit_update_record 2006-04-01
_chemical_name_common 'Lithium niobate'
_chemical_formula_structural 'Li Nb O3'
_chemical_formula_sum 'Li1 Nb1 O3'
_chemical_name_structure_type LiNbO3
_exptl_crystal_density_diffrn 4.63
_citation_title 'Synchrotron X-ray studies of Li Nb O3 and Li Ta O3'
loop_
_citation_id
_citation_journal_full
_citation_year
_citation_journal_volume
_citation_page_first
_citation_page_last
_citation_journal_id_ASTM
primary 'Acta Crystallographica, Section B: Structural Science' 1997 53 420 428
ASBSDK
loop_
_citation_author_citation_id
_citation_author_name
primary 'Hsu, R.'
primary 'Maslen, E.N.'
primary 'du Boulay, D.'
primary 'Ishizawa, N.'
_cell_length_a 5.148(3)
_cell_length_b 5.148(3)
_cell_length_c 13.863(3)
_cell_angle_alpha 90.
_cell_angle_beta 90.
_cell_angle_gamma 120.
_cell_volume 318.17
_cell_formula_units_Z 6
_space_group_name_H-M_alt 'R 3 c'
_space_group_IT_number 161
loop_
_space_group_symop_id
_space_group_symop_operation_xyz
1 '-x+y, y, z+1/2'
2 'x, x-y, z+1/2'
3 '-y, -x, z+1/2'
4 '-x+y, -x, z'
5 '-y, x-y, z'
6 'x, y, z'
7 '-x+y+2/3, y+1/3, z+5/6'
8 'x+2/3, x-y+1/3, z+5/6'
9 '-y+2/3, -x+1/3, z+5/6'
10 '-x+y+2/3, -x+1/3, z+1/3'
11 '-y+2/3, x-y+1/3, z+1/3'
12 'x+2/3, y+1/3, z+1/3'
13 '-x+y+1/3, y+2/3, z+1/6'
14 'x+1/3, x-y+2/3, z+1/6'
15 '-y+1/3, -x+2/3, z+1/6'
16 '-x+y+1/3, -x+2/3, z+2/3'
17 '-y+1/3, x-y+2/3, z+2/3'
18 'x+1/3, y+2/3, z+2/3'
loop_
_atom_type_symbol
_atom_type_oxidation_number
Li1+ 1
Nb5+ 5
O2- -2
loop_
_atom_site_label
_atom_site_type_symbol
_atom_site_symmetry_multiplicity
_atom_site_Wyckoff_symbol
_atom_site_fract_x
_atom_site_fract_y
_atom_site_fract_z
_atom_site_B_iso_or_equiv
_atom_site_occupancy
Li1 Li1+ 6 a 0 0 0.28063(44) 0.92 1.
Nb1 Nb5+ 6 a 0 0 0.99899(22) 0.36 1.
O1 O2- 18 b 0.04751(5) 0.34301(5) 0.06246(49) 0.56 1.
loop_
_atom_site_aniso_label
_atom_site_aniso_type_symbol
_atom_site_aniso_U_11
_atom_site_aniso_U_22
_atom_site_aniso_U_33
_atom_site_aniso_U_12
_atom_site_aniso_U_13
_atom_site_aniso_U_23
Li1 Li1+ 0.0117(11) 0.0117(11) 0.0173(24) 0.00584(54) 0 0
Nb1 Nb5+ 0.00456(3) 0.00456(3) 0.00393(4) 0.00228(2) 0 0
O1 O2- 0.00711(7) 0.00586(6) 0.00700(6) 0.00318(5) -0.00110(6) -0.00213(5)
#End of TTdata_84578-ICSD