
#(C) 2024 by FIZ Karlsruhe - Leibniz Institute for Information Infrastructure.  All rights reserved.
data_252137-ICSD
_database_code_ICSD 252137
_audit_creation_date 2016-08-01
_chemical_name_common 'Europium cadmide (4/25)'
_chemical_formula_structural 'Eu4 Cd25'
_chemical_formula_sum 'Cd25 Eu4'
_exptl_crystal_density_diffrn 8.41
_citation_title 'Superstructure of Eu4Cd25: A quasicrystal approximant'
loop_
_citation_id
_citation_journal_full
_citation_year
_citation_journal_volume
_citation_page_first
_citation_page_last
_citation_journal_id_ASTM
primary 'Chemistry - A European Journal' 2004 10 3279 3285 CEUJED
loop_
_citation_author_citation_id
_citation_author_name
primary 'Gomez, Cesar Pay'
primary 'Lidin, Sven'
_cell_length_a 31.8718(6)
_cell_length_b 31.8718(6)
_cell_length_c 31.8718(6)
_cell_angle_alpha 90.
_cell_angle_beta 90.
_cell_angle_gamma 90.
_cell_volume 32375.75
_cell_formula_units_Z 48
_space_group_name_H-M_alt 'F d -3'
_space_group_IT_number 203
loop_
_space_group_symop_id
_space_group_symop_operation_xyz
1 '-z+1/4, x+1/4, y+1/4'
2 'z+1/4, -x+1/4, y+1/4'
3 'z+1/4, x+1/4, -y+1/4'
4 '-z+1/4, -x+1/4, -y+1/4'
5 'z, -x, -y'
6 '-z, x, -y'
7 '-z, -x, y'
8 'z, x, y'
9 'y+1/4, -z+1/4, x+1/4'
10 'y+1/4, z+1/4, -x+1/4'
11 '-y+1/4, z+1/4, x+1/4'
12 '-y+1/4, -z+1/4, -x+1/4'
13 '-y, z, -x'
14 '-y, -z, x'
15 'y, -z, -x'
16 'y, z, x'
17 'x+1/4, y+1/4, -z+1/4'
18 '-x+1/4, y+1/4, z+1/4'
19 'x+1/4, -y+1/4, z+1/4'
20 '-x+1/4, -y+1/4, -z+1/4'
21 '-x, -y, z'
22 'x, -y, -z'
23 '-x, y, -z'
24 'x, y, z'
25 '-z+1/4, x+3/4, y+3/4'
26 'z+1/4, -x+3/4, y+3/4'
27 'z+1/4, x+3/4, -y+3/4'
28 '-z+1/4, -x+3/4, -y+3/4'
29 'z, -x+1/2, -y+1/2'
30 '-z, x+1/2, -y+1/2'
31 '-z, -x+1/2, y+1/2'
32 'z, x+1/2, y+1/2'
33 'y+1/4, -z+3/4, x+3/4'
34 'y+1/4, z+3/4, -x+3/4'
35 '-y+1/4, z+3/4, x+3/4'
36 '-y+1/4, -z+3/4, -x+3/4'
37 '-y, z+1/2, -x+1/2'
38 '-y, -z+1/2, x+1/2'
39 'y, -z+1/2, -x+1/2'
40 'y, z+1/2, x+1/2'
41 'x+1/4, y+3/4, -z+3/4'
42 '-x+1/4, y+3/4, z+3/4'
43 'x+1/4, -y+3/4, z+3/4'
44 '-x+1/4, -y+3/4, -z+3/4'
45 '-x, -y+1/2, z+1/2'
46 'x, -y+1/2, -z+1/2'
47 '-x, y+1/2, -z+1/2'
48 'x, y+1/2, z+1/2'
49 '-z+3/4, x+1/4, y+3/4'
50 'z+3/4, -x+1/4, y+3/4'
51 'z+3/4, x+1/4, -y+3/4'
52 '-z+3/4, -x+1/4, -y+3/4'
53 'z+1/2, -x, -y+1/2'
54 '-z+1/2, x, -y+1/2'
55 '-z+1/2, -x, y+1/2'
56 'z+1/2, x, y+1/2'
57 'y+3/4, -z+1/4, x+3/4'
58 'y+3/4, z+1/4, -x+3/4'
59 '-y+3/4, z+1/4, x+3/4'
60 '-y+3/4, -z+1/4, -x+3/4'
61 '-y+1/2, z, -x+1/2'
62 '-y+1/2, -z, x+1/2'
63 'y+1/2, -z, -x+1/2'
64 'y+1/2, z, x+1/2'
65 'x+3/4, y+1/4, -z+3/4'
66 '-x+3/4, y+1/4, z+3/4'
67 'x+3/4, -y+1/4, z+3/4'
68 '-x+3/4, -y+1/4, -z+3/4'
69 '-x+1/2, -y, z+1/2'
70 'x+1/2, -y, -z+1/2'
71 '-x+1/2, y, -z+1/2'
72 'x+1/2, y, z+1/2'
73 '-z+3/4, x+3/4, y+1/4'
74 'z+3/4, -x+3/4, y+1/4'
75 'z+3/4, x+3/4, -y+1/4'
76 '-z+3/4, -x+3/4, -y+1/4'
77 'z+1/2, -x+1/2, -y'
78 '-z+1/2, x+1/2, -y'
79 '-z+1/2, -x+1/2, y'
80 'z+1/2, x+1/2, y'
81 'y+3/4, -z+3/4, x+1/4'
82 'y+3/4, z+3/4, -x+1/4'
83 '-y+3/4, z+3/4, x+1/4'
84 '-y+3/4, -z+3/4, -x+1/4'
85 '-y+1/2, z+1/2, -x'
86 '-y+1/2, -z+1/2, x'
87 'y+1/2, -z+1/2, -x'
88 'y+1/2, z+1/2, x'
89 'x+3/4, y+3/4, -z+1/4'
90 '-x+3/4, y+3/4, z+1/4'
91 'x+3/4, -y+3/4, z+1/4'
92 '-x+3/4, -y+3/4, -z+1/4'
93 '-x+1/2, -y+1/2, z'
94 'x+1/2, -y+1/2, -z'
95 '-x+1/2, y+1/2, -z'
96 'x+1/2, y+1/2, z'
loop_
_atom_type_symbol
_atom_type_oxidation_number
Cd0+ 0
Eu0+ 0
Cd0+ 0
loop_
_atom_site_label
_atom_site_type_symbol
_atom_site_symmetry_multiplicity
_atom_site_Wyckoff_symbol
_atom_site_fract_x
_atom_site_fract_y
_atom_site_fract_z
_atom_site_U_iso_or_equiv
_atom_site_occupancy
Cd1 Cd0+ 96 g 0.2933(9) 0.2822(8) 0.2636(4) 0.0079(9) 0.3333
Cd2 Cd0+ 32 e 0.28354(5) 0.28354(5) 0.71646(5) 0.03928(18) 1.
Cd3 Cd0+ 32 e 0.32080(8) 0.32080(8) 0.17920(8) 0.0506(3) 1.
Cd4 Cd0+ 32 e 0.31075(3) 0.31075(3) 0.81075(3) 0.03122(16) 1.
Cd5 Cd0+ 32 e 0.33085(5) 0.33085(5) 0.33085(5) 0.01989(14) 1.
Cd6 Cd0+ 32 e 0.33674(2) 0.33674(2) 0.66326(2) 0.01953(13) 1.
Cd7 Cd0+ 96 g 0.295502(17) 0.371031(19) 0.25159(2) 0.02414(17) 1.
Cd8 Cd0+ 96 g 0.295974(16) 0.872684(17) 0.24640(2) 0.01840(15) 1.
Eu1 Eu0+ 96 g 0.344570(10) 0.249030(13) 0.399681(10) 0.01272(10) 1.
Eu2 Eu0+ 96 g 0.34392(3) 0.24764(3) 0.60174(3) 0.01149(10) 1.
Cd9 Cd0+ 48 f 0.25 0.45391(2) 0.25 0.0260(2) 1.
Cd10 Cd0+ 96 g 0.348037(18) 0.425550(18) 0.801398(19) 0.01726(17) 1.
Cd11 Cd0+ 96 g 0.349162(18) 0.422060(18) 0.306488(18) 0.01636(17) 1.
Cd12 Cd0+ 48 f 0.25 0.45463(2) 0.75 0.0235(2) 1.
Cd13 Cd0+ 96 g 0.303229(19) 0.348081(19) 0.076874(19) 0.01934(18) 1.
Cd14 Cd0+ 96 g 0.350538(18) 0.423058(18) 0.691664(19) 0.01742(17) 1.
Cd15 Cd0+ 96 g 0.346574(14) 0.498886(18) 0.251766(16) 0.01606(12) 1.
Cd16 Cd0+ 96 g 0.325343(14) 0.202427(15) 0.499746(19) 0.01455(14) 1.
Cd17 Cd0+ 96 g 0.326358(14) 0.702612(15) 0.49921(2) 0.01471(14) 1.
Cd18 Cd0+ 16 c 0.125 0.125 0.125 0.00799(16) 1.
Cd19 Cd0+ 32 e 0.36397(6) 0.36397(6) 0.86397(6) 0.03273(17) 1.
#End of TTdata_252137-ICSD